 Gaussian 16, Revision B.01,
 Gaussian 16:  ES64L-G16RevB.01 20-Dec-2017

 ----------------------------------------------------------------------
 # UBP86/GenECP Int=(Grid=Ultrafine,acc2e=12) SCF=(NoVarAcc,Tight,XQC,M
 axCyc=200) NoSymm # IRC=(Reverse,CalcAll,Recorrect=Never,Phase=(1,62),
 MaxPoints=1000,StepSize=10,maxcycle=1000,Report=cartesian)
 ----------------------------------------------------------------------

 IRC reverse from the transition state of the MHR [PY5Me2Mo(III)(H)(H)]
 ^+ + CO2 --> HCOOH +[PY5Me2Mo(III)O]^+ 2S+1=2 in gas phase
 ----------------------------------------------------------------------
 Symbolic Z-matrix:
 Charge =  1 Multiplicity = 2

 SCF Done:  E(UB-P86) =  -1727.15228214     A.U. after   31 cycles
 SCF Done:  E(UB-P86) =  -1727.15232299     A.U. after   19 cycles
 SCF Done:  E(UB-P86) =  -1727.15245908     A.U. after   18 cycles
 SCF Done:  E(UB-P86) =  -1727.15260254     A.U. after   18 cycles
 SCF Done:  E(UB-P86) =  -1727.15275465     A.U. after   18 cycles
 SCF Done:  E(UB-P86) =  -1727.15290568     A.U. after   18 cycles
 SCF Done:  E(UB-P86) =  -1727.15305040     A.U. after   18 cycles
 SCF Done:  E(UB-P86) =  -1727.15318524     A.U. after   17 cycles
 SCF Done:  E(UB-P86) =  -1727.15330788     A.U. after   17 cycles
 SCF Done:  E(UB-P86) =  -1727.15341716     A.U. after   17 cycles
 SCF Done:  E(UB-P86) =  -1727.15351133     A.U. after   17 cycles
 SCF Done:  E(UB-P86) =  -1727.15359075     A.U. after   17 cycles
 SCF Done:  E(UB-P86) =  -1727.15365569     A.U. after   17 cycles
 SCF Done:  E(UB-P86) =  -1727.15370778     A.U. after   16 cycles
 SCF Done:  E(UB-P86) =  -1727.15374877     A.U. after   15 cycles
 SCF Done:  E(UB-P86) =  -1727.15378174     A.U. after   16 cycles
 SCF Done:  E(UB-P86) =  -1727.15380867     A.U. after   16 cycles

                          Input orientation:
 ---------------------------------------------------------------------
 Center     Atomic      Atomic             Coordinates (Angstroms)
 Number     Number       Type             X           Y           Z
 ---------------------------------------------------------------------
      1         42           0       -0.077630    0.094725   -0.661040
      2          8           0       -0.662882    0.868200   -2.335698
      3          7           0       -1.751920   -1.258836   -0.602717
      4          7           0        1.375827   -1.475792   -0.094784
      5          7           0        1.613719    1.427900   -0.576880
      6          7           0       -1.656149    1.582120   -0.090325
      7          6           0       -2.611748   -1.283829    0.467810
      8          7           0       -0.072811    0.096322    1.574344
      9          6           0       -2.571756   -0.100748    1.485791
     10          6           0       -2.697048    1.242350    0.719348
     11          6           0        2.451885   -1.180987    0.698535
     12          6           0       -2.919327   -3.153599   -1.586259
     13          1           0       -3.029971   -3.830766   -2.437545
     14          6           0       -3.561809   -2.316741    0.582517
     15          1           0       -4.209262   -2.381259    1.456779
     16          6           0        2.545962    1.362542    0.428885
     17          6           0        3.645222    0.239610    2.408101
     18          1           0        3.624424   -0.602301    3.116014
     19          1           0        3.646232    1.173899    2.988962
     20          1           0        4.593768    0.193427    1.852945
     21          6           0       -3.805342    2.098103    0.862631
     22          1           0       -4.648849    1.813427    1.491701
     23          6           0       -3.759759   -0.241577    2.466830
     24          1           0       -3.824780    0.626644    3.138985
     25          1           0       -3.660411   -1.145190    3.087523
     26          1           0       -4.711071   -0.310963    1.919013
     27          6           0        3.574520    2.320086    0.514138
     28          1           0        4.301365    2.280744    1.324932
     29          6           0        1.138703    0.332047    3.649246
     30          1           0        2.078521    0.467826    4.181927
     31          6           0       -1.249522    0.060095    3.683092
     32          1           0       -2.179242   -0.035213    4.241734
     33          6           0        1.116410    0.229024    2.249710
     34          6           0        1.292063   -2.717848   -0.649001
     35          1           0        0.402507   -2.913749   -1.247807
     36          6           0        2.441907    0.184001    1.437552
     37          6           0       -1.244940   -0.001722    2.280875
     38          6           0       -3.839039    3.325439    0.187399
     39          1           0       -4.701248    3.990183    0.295673
     40          6           0        3.477909   -2.123328    0.878847
     41          1           0        4.349761   -1.881444    1.485966
     42          6           0        1.762492    2.403976   -1.531801
     43          1           0        1.023493    2.368824   -2.336384
     44          6           0       -0.051182    0.245361    4.376973
     45          6           0        3.695818    3.333507   -0.445483
     46          1           0        4.500612    4.070331   -0.373077
     47          6           0        2.774482    3.357880   -1.503385
     48          1           0        2.833148    4.101373   -2.303103
     49          6           0        2.263453   -3.703322   -0.473732
     50          1           0        2.134055   -4.676540   -0.953146
     51          6           0       -1.690493    2.777888   -0.739368
     52          1           0       -0.843339    2.986373   -1.391202
     53          6           0       -2.749231    3.677418   -0.620220
     54          1           0       -2.714309    4.626821   -1.160911
     55          6           0        3.394429   -3.392371    0.285530
     56          1           0        4.199327   -4.119627    0.426990
     57          6           0       -3.712061   -3.271673   -0.434326
     58          1           0       -4.451597   -4.071280   -0.334213
     59          6           0       -1.956363   -2.148132   -1.624643
     60          1           0       -1.305701   -2.015992   -2.493577
     61          1           0       -0.220037    0.514984   -3.186847
     62          1           0        0.855495   -0.735444   -2.140211
     63          1           0       -0.042608    0.308816    5.469050
     64          8           0        2.112962   -1.938427   -3.244876
     65          6           0        1.297929   -1.025461   -3.306791
     66          8           0        0.741436   -0.281787   -4.138019
 ---------------------------------------------------------------------

 Alpha  occ. eigenvalues --  -18.88604 -18.87765 -18.86521 -14.18857 -14.18507
 Alpha  occ. eigenvalues --  -14.17651 -14.17489 -14.17341 -10.11996 -10.09929
 Alpha  occ. eigenvalues --  -10.09867 -10.09075 -10.08843 -10.08773 -10.08504
 Alpha  occ. eigenvalues --  -10.08449 -10.08143 -10.07292 -10.06703 -10.06621
 Alpha  occ. eigenvalues --  -10.05708 -10.05650 -10.05165 -10.05160 -10.04706
 Alpha  occ. eigenvalues --  -10.04620 -10.04451 -10.04374 -10.04368 -10.04279
 Alpha  occ. eigenvalues --  -10.03861 -10.03844 -10.03789 -10.03766 -10.03592
 Alpha  occ. eigenvalues --  -10.03313 -10.03212 -10.03196  -2.55658  -1.60936
 Alpha  occ. eigenvalues --   -1.58882  -1.58069  -1.06911  -1.01543  -1.00758
 Alpha  occ. eigenvalues --   -0.99932  -0.99325  -0.98715  -0.98417  -0.94386
 Alpha  occ. eigenvalues --   -0.89451  -0.87494  -0.86290  -0.85103  -0.84950
 Alpha  occ. eigenvalues --   -0.84693  -0.84195  -0.81850  -0.81277  -0.81010
 Alpha  occ. eigenvalues --   -0.78871  -0.77573  -0.74277  -0.73069  -0.69955
 Alpha  occ. eigenvalues --   -0.69229  -0.69128  -0.68901  -0.68799  -0.68604
 Alpha  occ. eigenvalues --   -0.68509  -0.68066  -0.65490  -0.63543  -0.60401
 Alpha  occ. eigenvalues --   -0.59820  -0.59558  -0.59172  -0.58867  -0.58113
 Alpha  occ. eigenvalues --   -0.56483  -0.55811  -0.55769  -0.55619  -0.55260
 Alpha  occ. eigenvalues --   -0.54332  -0.54043  -0.53675  -0.53189  -0.52941
 Alpha  occ. eigenvalues --   -0.52287  -0.51966  -0.51577  -0.51053  -0.50836
 Alpha  occ. eigenvalues --   -0.50289  -0.49722  -0.49258  -0.48901  -0.48234
 Alpha  occ. eigenvalues --   -0.47751  -0.47493  -0.47435  -0.47356  -0.47321
 Alpha  occ. eigenvalues --   -0.47122  -0.47042  -0.46570  -0.46468  -0.45659
 Alpha  occ. eigenvalues --   -0.45339  -0.45152  -0.44829  -0.44324  -0.44043
 Alpha  occ. eigenvalues --   -0.43729  -0.43642  -0.43117  -0.42182  -0.41620
 Alpha  occ. eigenvalues --   -0.41007  -0.40296  -0.39037  -0.38973  -0.38396
 Alpha  occ. eigenvalues --   -0.38179  -0.37598  -0.37384  -0.36700  -0.36256
 Alpha  occ. eigenvalues --   -0.36177  -0.35704  -0.35534  -0.34940  -0.34404
 Alpha  occ. eigenvalues --   -0.34031  -0.33493  -0.31422  -0.25589  -0.23959
 Alpha virt. eigenvalues --   -0.21305  -0.19230  -0.19017  -0.18627  -0.18288
 Alpha virt. eigenvalues --   -0.17851  -0.17599  -0.17306  -0.16835  -0.15663
 Alpha virt. eigenvalues --   -0.14692  -0.13114  -0.10801  -0.09908  -0.09467

  Beta  occ. eigenvalues --  -18.88624 -18.87782 -18.86191 -14.18878 -14.18533
  Beta  occ. eigenvalues --  -14.17663 -14.17505 -14.17359 -10.11994 -10.09884
  Beta  occ. eigenvalues --  -10.09826 -10.09051 -10.08840 -10.08718 -10.08509
  Beta  occ. eigenvalues --  -10.08452 -10.08145 -10.07276 -10.06636 -10.06624
  Beta  occ. eigenvalues --  -10.05699 -10.05600 -10.05178 -10.05174 -10.04688
  Beta  occ. eigenvalues --  -10.04627 -10.04456 -10.04372 -10.04313 -10.04279
  Beta  occ. eigenvalues --  -10.03867 -10.03866 -10.03786 -10.03766 -10.03605
  Beta  occ. eigenvalues --  -10.03312 -10.03212 -10.03195  -2.54080  -1.58828
  Beta  occ. eigenvalues --   -1.58033  -1.55897  -1.06938  -1.01514  -1.00780
  Beta  occ. eigenvalues --   -0.99929  -0.99313  -0.98687  -0.98403  -0.93719
  Beta  occ. eigenvalues --   -0.89419  -0.87475  -0.86246  -0.85090  -0.84942
  Beta  occ. eigenvalues --   -0.84646  -0.84202  -0.81808  -0.81241  -0.80998
  Beta  occ. eigenvalues --   -0.78851  -0.77555  -0.74270  -0.73061  -0.69886
  Beta  occ. eigenvalues --   -0.69210  -0.69113  -0.68885  -0.68737  -0.68600
  Beta  occ. eigenvalues --   -0.68470  -0.68060  -0.65455  -0.63518  -0.60372
  Beta  occ. eigenvalues --   -0.59808  -0.59521  -0.59146  -0.58873  -0.58089
  Beta  occ. eigenvalues --   -0.56466  -0.55797  -0.55756  -0.55586  -0.55245
  Beta  occ. eigenvalues --   -0.54255  -0.54015  -0.53652  -0.53170  -0.52925
  Beta  occ. eigenvalues --   -0.52249  -0.51936  -0.51550  -0.51039  -0.50743
  Beta  occ. eigenvalues --   -0.50222  -0.49670  -0.49139  -0.48858  -0.48205
  Beta  occ. eigenvalues --   -0.47743  -0.47462  -0.47417  -0.47329  -0.47270
  Beta  occ. eigenvalues --   -0.47101  -0.47030  -0.46515  -0.46459  -0.45591
  Beta  occ. eigenvalues --   -0.45318  -0.45135  -0.44824  -0.44299  -0.43994
  Beta  occ. eigenvalues --   -0.43715  -0.43619  -0.43091  -0.42094  -0.41463
  Beta  occ. eigenvalues --   -0.40834  -0.40132  -0.38953  -0.38760  -0.38277
  Beta  occ. eigenvalues --   -0.38119  -0.37579  -0.37294  -0.36540  -0.36107
  Beta  occ. eigenvalues --   -0.35652  -0.35477  -0.35014  -0.34823  -0.34377
  Beta  occ. eigenvalues --   -0.33786  -0.33431  -0.31366  -0.24678
  Beta virt. eigenvalues --   -0.21834  -0.20615  -0.19072  -0.18544  -0.18219
  Beta virt. eigenvalues --   -0.17992  -0.17648  -0.17215  -0.16927  -0.16790
  Beta virt. eigenvalues --   -0.15578  -0.14608  -0.12338  -0.10791  -0.09901

 Mulliken charges and spin densities:
               1          2
     1  Mo   1.448731   0.815820
     2  O   -0.912601   0.144502
     3  N    0.209848  -0.028482
     4  N    0.210745  -0.054554
     5  N    0.010957  -0.030774
     6  N    0.244923  -0.027355
     7  C    0.370242   0.046538
     8  N   -0.019870  -0.045700
     9  C   -1.218373   0.000752
    10  C   -0.027359   0.015875
    11  C    0.203865   0.014060
    12  C   -0.303742  -0.008548
    13  H    0.170669   0.001181
    14  C   -0.107757  -0.026155
    15  H    0.146720   0.000562
    16  C    0.024760  -0.006031
    17  C   -0.015671   0.012100
    18  H    0.195365   0.000025
    19  H    0.184947  -0.000058
    20  H    0.195793  -0.000068
    21  C    0.094563  -0.002776
    22  H    0.149290  -0.000133
    23  C   -0.110204   0.002395
    24  H    0.188541  -0.000010
    25  H    0.188334   0.000055
    26  H    0.197030  -0.000067
    27  C   -0.195486   0.008766
    28  H    0.144278  -0.000050
    29  C    0.102885  -0.011257
    30  H    0.152923   0.000520
    31  C   -0.025887  -0.014911
    32  H    0.153353   0.000553
    33  C    0.241627   0.017031
    34  C    0.352414   0.006283
    35  H    0.163548  -0.000723
    36  C   -1.226608   0.015509
    37  C    0.436960   0.011322
    38  C   -0.519305  -0.008781
    39  H    0.170572   0.000365
    40  C    0.148999  -0.004225
    41  H    0.149411   0.000127
    42  C    0.175283   0.004019
    43  H    0.187240   0.000884
    44  C   -0.727184   0.044632
    45  C   -0.579366  -0.012288
    46  H    0.166524   0.000580
    47  C   -0.208217   0.015119
    48  H    0.167429   0.001034
    49  C   -0.590098   0.000506
    50  H    0.168753   0.000067
    51  C    0.281840  -0.009206
    52  H    0.163144   0.000099
    53  C   -0.473856   0.006818
    54  H    0.168892   0.000022
    55  C   -0.539070   0.017394
    56  H    0.172015  -0.000704
    57  C   -0.442850   0.071128
    58  H    0.169503  -0.003286
    59  C    0.323542   0.054687
    60  H    0.186226  -0.003378
    61  H    0.437023  -0.002762
    62  H   -0.181965  -0.010873
    63  H    0.171345  -0.002175
    64  O   -0.247054  -0.006966
    65  C    0.345186  -0.001929
    66  O   -0.263718  -0.007105
 Sum of Mulliken charges =   1.00000   1.00000

 Dipole moment (field-independent basis, Debye):
    X=             -2.0513    Y=              0.6210    Z=             10.0924  Tot=             10.3175
 Quadrupole moment (field-independent basis, Debye-Ang):
   XX=           -166.9650   YY=           -184.0718   ZZ=           -223.5768
   XY=              6.0908   XZ=              7.1859   YZ=             -4.1403

  Exact polarizability:   0.000   0.000   0.000   0.000   0.000   0.000
 Approx polarizability:1349.454 131.3011113.537 -17.283   6.0851207.019

 Normal termination of Gaussian 16 at Mon Jun 22 21:44:19 2020.
