 Gaussian 16, Revision B.01,
 Gaussian 16:  ES64L-G16RevB.01 20-Dec-2017

 ----------------------------------------------------------------------
 # BP86/6-31+G(d,p) NoSymm SCF=(maxcyc=200,NoVarAcc,XQC) Int=(Grid=Ultr
 afine,acc2e=12) # Guess=Read Geom=Check IRC=(CalcAll,Recorrect=Never,P
 hase(1,5),MaxPoints=500,StepSize=10,MaxCycle=666,Report=cartesian)
 ----------------------------------------------------------------------

 -------------------------------------------------
 IRC of the H2 + CO2 --> HCOOH 2S+1=1 in gas phase
 -------------------------------------------------
 Structure from the checkpoint file:  "H2CO2IRC_M1.chk"
 Charge =  0 Multiplicity = 1

 SCF Done:  E(RB-P86) =  -189.674084035     A.U. after    1 cycles
 SCF Done:  E(RB-P86) =  -189.674959397     A.U. after   10 cycles
 SCF Done:  E(RB-P86) =  -189.677471011     A.U. after   10 cycles
 SCF Done:  E(RB-P86) =  -189.681351942     A.U. after   10 cycles
 SCF Done:  E(RB-P86) =  -189.686238775     A.U. after   10 cycles
 SCF Done:  E(RB-P86) =  -189.691741409     A.U. after   10 cycles
 SCF Done:  E(RB-P86) =  -189.697523185     A.U. after   10 cycles
 SCF Done:  E(RB-P86) =  -189.703343903     A.U. after   10 cycles
 SCF Done:  E(RB-P86) =  -189.709051286     A.U. after   10 cycles
 SCF Done:  E(RB-P86) =  -189.714551048     A.U. after   10 cycles
 SCF Done:  E(RB-P86) =  -189.764445282     A.U. after    9 cycles
 SCF Done:  E(RB-P86) =  -189.766308460     A.U. after    9 cycles
 SCF Done:  E(RB-P86) =  -189.767864384     A.U. after    9 cycles
 SCF Done:  E(RB-P86) =  -189.769157806     A.U. after    9 cycles
 SCF Done:  E(RB-P86) =  -189.770226376     A.U. after    9 cycles
 SCF Done:  E(RB-P86) =  -189.771097235     A.U. after    9 cycles
 SCF Done:  E(RB-P86) =  -189.771788686     A.U. after    9 cycles
 SCF Done:  E(RB-P86) =  -189.772309042     A.U. after    9 cycles
 SCF Done:  E(RB-P86) =  -189.772660896     A.U. after    9 cycles
 SCF Done:  E(RB-P86) =  -189.772843405     A.U. after    9 cycles

                          Input orientation:
 ---------------------------------------------------------------------
 Center     Atomic      Atomic             Coordinates (Angstroms)
 Number     Number       Type             X           Y           Z
 ---------------------------------------------------------------------
      1          1           0       -1.369876    1.237605   -0.342658
      2          1           0       -0.617756    0.212855    1.367569
      3          8           0        0.830030   -0.769357    0.293441
      4          6           0       -0.102385   -0.004441    0.401758
      5          8           0       -0.627978    0.681297   -0.659435
 ---------------------------------------------------------------------

 Alpha  occ. eigenvalues --  -18.87557 -18.81731 -10.06418  -1.03186  -0.95987
 Alpha  occ. eigenvalues --   -0.59349  -0.53546  -0.41495  -0.41009  -0.36640
 Alpha  occ. eigenvalues --   -0.30365  -0.25741
 Alpha virt. eigenvalues --   -0.06321  -0.02788   0.01957   0.04346   0.05608
 Alpha virt. eigenvalues --    0.11506   0.14028   0.15336   0.18313   0.20345
 Alpha virt. eigenvalues --    0.21980   0.22843   0.23487   0.25976   0.28007

 Mulliken charges:
               1
     1  H    0.338997
     2  H    0.121866
     3  O   -0.366142
     4  C    0.247368
     5  O   -0.342089
 Sum of Mulliken charges =  -0.00000

 Dipole moment (field-independent basis, Debye):
    X=             -3.0135    Y=              2.2416    Z=              1.3664  Tot=              3.9966
 Quadrupole moment (field-independent basis, Debye-Ang):
   XX=            -16.0229   YY=            -16.7910   ZZ=            -17.9546
   XY=             -0.9272   XZ=             -0.9303   YZ=              0.9210

  Exact polarizability:   0.000   0.000   0.000   0.000   0.000   0.000
 Approx polarizability:  42.386 -20.386  37.125   2.031  -4.454  30.910

 Normal termination of Gaussian 16 at Sat Aug  1 02:16:52 2020.
