 Gaussian 16, Revision B.01,
 Gaussian 16:  ES64L-G16RevB.01 20-Dec-2017

 ----------------------------------------------------------------------
 # M062X/ChkBasis NoSymm SCF=(NoVarAcc,XQC) Int=(Grid=Ultrafine,acc2e=1
 1) Geom=AllCheck Guess=Read IRC=(Forward,CalcAll,Phase=(1,6),MaxPoints
 =300,StepSize=5)
 ----------------------------------------------------------------------

 ----------------------------------------------------------------------
 Geometrical optimization for a DA reaction C2H2(NH2)2 + C4H4(NH2)2 -->
  C6H6(NH2)4
 ----------------------------------------------------------------------
 Charge =  0 Multiplicity = 1

 SCF Done:  E(RM062X) =  -455.770424251     A.U. after    5 cycles
 SCF Done:  E(RM062X) =  -455.770552231     A.U. after   12 cycles
 SCF Done:  E(RM062X) =  -455.770918322     A.U. after   11 cycles
 SCF Done:  E(RM062X) =  -455.771499803     A.U. after   11 cycles
 SCF Done:  E(RM062X) =  -455.772274204     A.U. after   11 cycles
 SCF Done:  E(RM062X) =  -455.773219142     A.U. after   11 cycles
 SCF Done:  E(RM062X) =  -455.774312265     A.U. after   11 cycles
 SCF Done:  E(RM062X) =  -455.775531197     A.U. after   11 cycles
 SCF Done:  E(RM062X) =  -455.776853813     A.U. after   11 cycles
 SCF Done:  E(RM062X) =  -455.778258893     A.U. after   11 cycles
 SCF Done:  E(RM062X) =  -455.825485761     A.U. after    9 cycles
 SCF Done:  E(RM062X) =  -455.825508067     A.U. after    9 cycles
 SCF Done:  E(RM062X) =  -455.825529944     A.U. after   10 cycles
 SCF Done:  E(RM062X) =  -455.825551467     A.U. after   10 cycles
 SCF Done:  E(RM062X) =  -455.825572698     A.U. after   10 cycles
 SCF Done:  E(RM062X) =  -455.825593668     A.U. after   10 cycles
 SCF Done:  E(RM062X) =  -455.825614373     A.U. after   10 cycles
 SCF Done:  E(RM062X) =  -455.825634785     A.U. after   10 cycles
 SCF Done:  E(RM062X) =  -455.825654855     A.U. after   10 cycles
 SCF Done:  E(RM062X) =  -455.825674511     A.U. after   10 cycles

                          Input orientation:
 ---------------------------------------------------------------------
 Center     Atomic      Atomic             Coordinates (Angstroms)
 Number     Number       Type             X           Y           Z
 ---------------------------------------------------------------------
      1          6           0       -0.016729    1.114651   -1.627117
      2          6           0       -1.044784    0.625953   -0.914820
      3          6           0       -1.184411   -0.829837   -0.610209
      4          6           0       -0.815023   -1.781652   -1.475390
      5          6           0        1.543948   -0.781040    1.127134
      6          6           0        1.203467    0.359654    1.743168
      7          1           0        0.030769    2.157834   -1.910100
      8          1           0       -0.888240   -2.830719   -1.222078
      9          1           0        1.141403   -1.727621    1.460528
     10          1           0        0.566793    0.341197    2.619076
     11          1           0       -0.466207   -1.523988   -2.461849
     12          1           0        0.791541    0.469111   -1.927707
     13          7           0        1.671401    1.607805    1.232287
     14          1           0        1.172598    1.955017    0.420109
     15          1           0        1.919673    2.316545    1.903646
     16          7           0        2.403931   -0.837117    0.050255
     17          1           0        2.837483    0.019993   -0.249246
     18          1           0        2.491077   -1.660991   -0.511654
     19          7           0       -2.059404    1.404709   -0.372646
     20          1           0       -2.074330    2.396250   -0.528740
     21          1           0       -2.894812    0.955403   -0.039940
     22          7           0       -1.823343   -1.090694    0.611654
     23          1           0       -2.006815   -2.054046    0.842408
     24          1           0       -1.563610   -0.498382    1.387698
 ---------------------------------------------------------------------

 Alpha  occ. eigenvalues --  -14.75277 -14.75164 -14.73477 -14.71862 -10.58930
 Alpha  occ. eigenvalues --  -10.58844 -10.55856 -10.53451 -10.51703 -10.50962
 Alpha  occ. eigenvalues --   -1.04316  -1.00918  -0.99725  -0.96127  -0.86281
 Alpha  occ. eigenvalues --   -0.80383  -0.79782  -0.71001  -0.64532  -0.62040
 Alpha  occ. eigenvalues --   -0.60999  -0.60390  -0.57670  -0.56786  -0.55217
 Alpha  occ. eigenvalues --   -0.54079  -0.49963  -0.48900  -0.48003  -0.46463
 Alpha  occ. eigenvalues --   -0.44915  -0.42571  -0.42076  -0.39619  -0.38162
 Alpha  occ. eigenvalues --   -0.30797  -0.27297  -0.24972  -0.22384
 Alpha virt. eigenvalues --    0.02681   0.05616   0.07329   0.08452   0.08662
 Alpha virt. eigenvalues --    0.09714   0.11470   0.11745   0.12776   0.13521
 Alpha virt. eigenvalues --    0.14480   0.15314   0.16238   0.16743   0.17459

 Mulliken charges:
               1
     1  C   -0.522059
     2  C    0.044936
     3  C    0.093551
     4  C   -0.392318
     5  C    0.028905
     6  C   -0.243440
     7  H    0.167552
     8  H    0.151636
     9  H    0.161968
    10  H    0.167377
    11  H    0.196377
    12  H    0.190376
    13  N   -0.705116
    14  H    0.325903
    15  H    0.298782
    16  N   -0.674358
    17  H    0.341323
    18  H    0.320513
    19  N   -0.605564
    20  H    0.323426
    21  H    0.348342
    22  N   -0.640443
    23  H    0.308963
    24  H    0.313368
 Sum of Mulliken charges =  -0.00000

 Dipole moment (field-independent basis, Debye):
    X=             -1.4661    Y=              0.1188    Z=              0.6407  Tot=              1.6044
 Quadrupole moment (field-independent basis, Debye-Ang):
   XX=            -65.9548   YY=            -51.6781   ZZ=            -64.3770
   XY=             -2.1796   XZ=             -7.5149   YZ=             -0.3599

  Exact polarizability:   0.000   0.000   0.000   0.000   0.000   0.000
 Approx polarizability: 111.095  -3.875 131.937 -27.613  14.882 119.007

 Normal termination of Gaussian 16 at Wed Apr 15 17:53:26 2020.
