 Gaussian 16, Revision B.01,
 Gaussian 16:  ES64L-G16RevB.01 20-Dec-2017

 ----------------------------------------------------------------------
 # M062X/ChkBasis NoSymm SCF=(NoVarAcc,XQC) Int=(Grid=Ultrafine,acc2e=1
 1) Geom=AllCheck Guess=Read IRC=(Forward,CalcAll,Phase=(1,6),MaxPoints
 =300,StepSize=5)
 ----------------------------------------------------------------------

 Structure from the checkpoint file:  "dairc1-testf.chk"
 --------------------------------------------------------------
 Geometrical optimization for a DA reaction C2H4+C4H6 --> C6H10
 --------------------------------------------------------------
 Charge =  0 Multiplicity = 1

 SCF Done:  E(RM062X) =  -234.433257572     A.U. after    5 cycles
 SCF Done:  E(RM062X) =  -234.433373021     A.U. after   10 cycles
 SCF Done:  E(RM062X) =  -234.433700836     A.U. after   10 cycles
 SCF Done:  E(RM062X) =  -234.434217854     A.U. after   10 cycles
 SCF Done:  E(RM062X) =  -234.434902518     A.U. after   10 cycles
 SCF Done:  E(RM062X) =  -234.435733861     A.U. after   10 cycles
 SCF Done:  E(RM062X) =  -234.436690133     A.U. after   10 cycles
 SCF Done:  E(RM062X) =  -234.437747769     A.U. after   10 cycles
 SCF Done:  E(RM062X) =  -234.438881564     A.U. after   10 cycles
 SCF Done:  E(RM062X) =  -234.440066230     A.U. after   10 cycles
 SCF Done:  E(RM062X) =  -234.464201950     A.U. after    9 cycles
 SCF Done:  E(RM062X) =  -234.464245558     A.U. after    9 cycles
 SCF Done:  E(RM062X) =  -234.464288714     A.U. after    9 cycles
 SCF Done:  E(RM062X) =  -234.464329556     A.U. after    9 cycles
 SCF Done:  E(RM062X) =  -234.464366443     A.U. after    9 cycles
 SCF Done:  E(RM062X) =  -234.464399036     A.U. after    9 cycles
 SCF Done:  E(RM062X) =  -234.464428145     A.U. after    9 cycles
 SCF Done:  E(RM062X) =  -234.464454484     A.U. after    9 cycles
 SCF Done:  E(RM062X) =  -234.464478541     A.U. after    9 cycles
 SCF Done:  E(RM062X) =  -234.464500764     A.U. after    9 cycles

                          Input orientation:
 ---------------------------------------------------------------------
 Center     Atomic      Atomic             Coordinates (Angstroms)
 Number     Number       Type             X           Y           Z
 ---------------------------------------------------------------------
      1          6           0       -0.375401   -1.557492   -0.965601
      2          6           0        0.861378   -1.341615   -0.518761
      3          6           0        1.642505   -0.114306   -0.747604
      4          6           0        1.123691    1.094280   -0.965242
      5          6           0       -1.205827    1.482154    1.573855
      6          6           0       -1.872994    0.336080    1.530029
      7          1           0       -0.904645   -2.474340   -0.745897
      8          1           0        1.360092   -2.118950    0.050338
      9          1           0        2.720644   -0.229615   -0.718531
     10          1           0        1.753449    1.954423   -1.145537
     11          1           0       -0.158325    1.519840    1.841769
     12          1           0       -2.919681    0.293113    1.256812
     13          1           0       -1.396934   -0.606939    1.761118
     14          1           0       -1.676810    2.428183    1.338222
     15          1           0        0.054937    1.264328   -0.954157
     16          1           0       -0.896798   -0.828647   -1.572932
 ---------------------------------------------------------------------

 Alpha  occ. eigenvalues --  -10.54992 -10.54941 -10.53866 -10.53706 -10.53679
 Alpha  occ. eigenvalues --  -10.53562  -0.91121  -0.86090  -0.82942  -0.70470
 Alpha  occ. eigenvalues --   -0.65960  -0.60923  -0.57055  -0.54225  -0.51070
 Alpha  occ. eigenvalues --   -0.49476  -0.48732  -0.43272  -0.41427  -0.40943
 Alpha  occ. eigenvalues --   -0.38121  -0.32910  -0.29174
 Alpha virt. eigenvalues --    0.00213   0.04326   0.08762   0.10077   0.10680
 Alpha virt. eigenvalues --    0.11423   0.12067   0.13359   0.14135   0.15983
 Alpha virt. eigenvalues --    0.16437   0.18265   0.19892   0.21128   0.23023

 Mulliken charges:
               1
     1  C   -0.380439
     2  C   -0.130047
     3  C   -0.108107
     4  C   -0.401323
     5  C   -0.326405
     6  C   -0.291001
     7  H    0.156728
     8  H    0.171170
     9  H    0.171083
    10  H    0.155738
    11  H    0.165201
    12  H    0.149604
    13  H    0.153718
    14  H    0.150910
    15  H    0.185083
    16  H    0.178086
 Sum of Mulliken charges =  -0.00000

 Dipole moment (field-independent basis, Debye):
    X=              0.0625    Y=             -0.0583    Z=              0.0046  Tot=              0.0856
 Quadrupole moment (field-independent basis, Debye-Ang):
   XX=            -36.3012   YY=            -36.4953   ZZ=            -43.9584
   XY=              0.4449   XZ=              1.9605   YZ=             -2.0453

  Exact polarizability:   0.000   0.000   0.000   0.000   0.000   0.000
 Approx polarizability:  87.280  10.883  99.724   8.150  -4.445  50.961

 Normal termination of Gaussian 16 at Wed Apr 15 19:00:01 2020.
