 Gaussian 16, Revision B.01,
 Gaussian 16:  ES64L-G16RevB.01 20-Dec-2017

 ----------------------------------------------------------------------
 # M062X/ChkBasis NoSymm SCF=(NoVarAcc,XQC) Int=(Grid=Ultrafine,acc2e=1
 1) Geom=AllCheck Guess=Read IRC=(Reverse,CalcAll,Phase=(1,6),MaxPoints
 =300,StepSize=5)
 ----------------------------------------------------------------------

 Structure from the checkpoint file:  "dairc1-testr.chk"
 --------------------------------------------------------------
 Geometrical optimization for a DA reaction C2H4+C4H6 --> C6H10
 --------------------------------------------------------------
 Charge =  0 Multiplicity = 1

 SCF Done:  E(RM062X) =  -234.433257572     A.U. after    5 cycles
 SCF Done:  E(RM062X) =  -234.433379549     A.U. after   10 cycles
 SCF Done:  E(RM062X) =  -234.433765769     A.U. after   10 cycles
 SCF Done:  E(RM062X) =  -234.434443994     A.U. after   10 cycles
 SCF Done:  E(RM062X) =  -234.435441982     A.U. after   10 cycles
 SCF Done:  E(RM062X) =  -234.436785454     A.U. after   10 cycles
 SCF Done:  E(RM062X) =  -234.438495313     A.U. after   10 cycles
 SCF Done:  E(RM062X) =  -234.440584170     A.U. after   10 cycles
 SCF Done:  E(RM062X) =  -234.443053204     A.U. after   10 cycles
 SCF Done:  E(RM062X) =  -234.445890718     A.U. after   10 cycles
 SCF Done:  E(RM062X) =  -234.527378482     A.U. after    9 cycles
 SCF Done:  E(RM062X) =  -234.529156664     A.U. after    9 cycles
 SCF Done:  E(RM062X) =  -234.530475726     A.U. after    9 cycles
 SCF Done:  E(RM062X) =  -234.531343115     A.U. after    9 cycles
 SCF Done:  E(RM062X) =  -234.531829068     A.U. after    9 cycles
 SCF Done:  E(RM062X) =  -234.532094035     A.U. after    9 cycles
 SCF Done:  E(RM062X) =  -234.532266012     A.U. after    9 cycles
 SCF Done:  E(RM062X) =  -234.532380724     A.U. after    9 cycles
 SCF Done:  E(RM062X) =  -234.532447378     A.U. after    9 cycles
 SCF Done:  E(RM062X) =  -234.532470946     A.U. after   10 cycles

                          Input orientation:
 ---------------------------------------------------------------------
 Center     Atomic      Atomic             Coordinates (Angstroms)
 Number     Number       Type             X           Y           Z
 ---------------------------------------------------------------------
      1          6           0       -0.785868   -1.148689   -0.333009
      2          6           0        0.719479   -1.191942   -0.392729
      3          6           0        1.383598   -0.037533   -0.420470
      4          6           0        0.590379    1.243742   -0.390650
      5          6           0       -0.484764    1.191272    0.721672
      6          6           0       -1.257418   -0.153476    0.754679
      7          1           0       -1.205937   -2.135373   -0.142909
      8          1           0        1.229497   -2.146558   -0.408498
      9          1           0        2.464641    0.000391   -0.459962
     10          1           0        1.235637    2.108928   -0.244934
     11          1           0        0.014342    1.344623    1.678882
     12          1           0       -2.328332    0.018618    0.640242
     13          1           0       -1.116819   -0.627050    1.726701
     14          1           0       -1.175238    2.025156    0.589511
     15          1           0        0.090280    1.382485   -1.355925
     16          1           0       -1.177514   -0.820722   -1.302643
 ---------------------------------------------------------------------

 Alpha  occ. eigenvalues --  -10.53494 -10.53493 -10.53257 -10.53226 -10.53196
 Alpha  occ. eigenvalues --  -10.53083  -0.93463  -0.83456  -0.83099  -0.70834
 Alpha  occ. eigenvalues --   -0.67519  -0.57727  -0.57034  -0.54535  -0.46799
 Alpha  occ. eigenvalues --   -0.46478  -0.46369  -0.44081  -0.44028  -0.38089
 Alpha  occ. eigenvalues --   -0.37534  -0.35712  -0.29743
 Alpha virt. eigenvalues --    0.05436   0.07164   0.10160   0.11250   0.11280
 Alpha virt. eigenvalues --    0.12616   0.13690   0.15449   0.15703   0.18015
 Alpha virt. eigenvalues --    0.18369   0.20247   0.22696   0.24157   0.24365

 Mulliken charges:
               1
     1  C   -0.375485
     2  C   -0.163972
     3  C   -0.164018
     4  C   -0.375658
     5  C   -0.357912
     6  C   -0.358271
     7  H    0.170219
     8  H    0.194871
     9  H    0.194906
    10  H    0.170172
    11  H    0.178346
    12  H    0.169643
    13  H    0.178323
    14  H    0.169563
    15  H    0.184667
    16  H    0.184606
 Sum of Mulliken charges =  -0.00000

 Dipole moment (field-independent basis, Debye):
    X=             -0.3039    Y=              0.1759    Z=              0.0444  Tot=              0.3539
 Quadrupole moment (field-independent basis, Debye-Ang):
   XX=            -38.0297   YY=            -37.5285   ZZ=            -40.3134
   XY=              0.4462   XZ=              0.3032   YZ=             -0.2473

  Exact polarizability:   0.000   0.000   0.000   0.000   0.000   0.000
 Approx polarizability:  74.202   6.608  81.872   0.064  -0.577  63.207

 Normal termination of Gaussian 16 at Wed Apr 15 18:46:58 2020.
