 Gaussian 16, Revision B.01,
 Gaussian 16:  ES64L-G16RevB.01 20-Dec-2017

 ----------------------------------------------------------------------
 # UBP86/GenECP Int=(Grid=Ultrafine,acc2e=12) SCF=(NoVarAcc,Tight,XQC,M
 axCyc=200) NoSymm # IRC=(Reverse,CalcAll,Recorrect=Never,Phase=(1,62),
 MaxPoints=1000,StepSize=10,maxcycle=1000,Report=cartesian)
 ----------------------------------------------------------------------

 IRC reverse from the transition state of the MHR [PY5Me2Mo(IV)(H)(H)]^
 +2 + CO2 --> HCOOH +[PY5Me2Mo(IV)O]^+2 2S+1=3 in gas phase
 ----------------------------------------------------------------------
 Symbolic Z-matrix:
 Charge =  2 Multiplicity = 3

 SCF Done:  E(UB-P86) =  -1726.84591357     A.U. after   27 cycles
 SCF Done:  E(UB-P86) =  -1726.84603350     A.U. after   18 cycles
 SCF Done:  E(UB-P86) =  -1726.84630997     A.U. after   18 cycles
 SCF Done:  E(UB-P86) =  -1726.84664199     A.U. after   17 cycles
 SCF Done:  E(UB-P86) =  -1726.84699685     A.U. after   16 cycles
 SCF Done:  E(UB-P86) =  -1726.84736566     A.U. after   16 cycles
 SCF Done:  E(UB-P86) =  -1726.84774333     A.U. after   16 cycles
 SCF Done:  E(UB-P86) =  -1726.84812770     A.U. after   16 cycles
 SCF Done:  E(UB-P86) =  -1726.84851804     A.U. after   16 cycles
 SCF Done:  E(UB-P86) =  -1726.84891613     A.U. after   16 cycles
 SCF Done:  E(UB-P86) =  -1726.87491027     A.U. after   13 cycles
 SCF Done:  E(UB-P86) =  -1726.87493043     A.U. after   13 cycles
 SCF Done:  E(UB-P86) =  -1726.87495029     A.U. after   13 cycles
 SCF Done:  E(UB-P86) =  -1726.87497008     A.U. after   13 cycles
 SCF Done:  E(UB-P86) =  -1726.87498957     A.U. after   13 cycles
 SCF Done:  E(UB-P86) =  -1726.87500901     A.U. after   13 cycles
 SCF Done:  E(UB-P86) =  -1726.87502793     A.U. after   13 cycles
 SCF Done:  E(UB-P86) =  -1726.87504660     A.U. after   13 cycles
 SCF Done:  E(UB-P86) =  -1726.87506514     A.U. after   13 cycles
 SCF Done:  E(UB-P86) =  -1726.87508373     A.U. after   13 cycles

                          Input orientation:
 ---------------------------------------------------------------------
 Center     Atomic      Atomic             Coordinates (Angstroms)
 Number     Number       Type             X           Y           Z
 ---------------------------------------------------------------------
      1         42           0       -0.113066    0.079458   -0.598796
      2          8           0       -0.503802    0.959291   -2.358128
      3          7           0       -1.852524   -1.259124   -0.506482
      4          7           0        1.437275   -1.455632   -0.078891
      5          7           0        1.619811    1.448296   -0.499749
      6          7           0       -1.764465    1.581979   -0.131477
      7          6           0       -2.710162   -1.235374    0.560612
      8          7           0       -0.099683    0.085694    1.653057
      9          6           0       -2.622726   -0.043343    1.561197
     10          6           0       -2.741555    1.294078    0.772107
     11          6           0        2.464459   -1.163282    0.772780
     12          6           0       -3.051701   -3.162072   -1.435325
     13          1           0       -3.169122   -3.866546   -2.263011
     14          6           0       -3.700153   -2.228535    0.689673
     15          1           0       -4.362376   -2.243823    1.554242
     16          6           0        2.534282    1.375190    0.514203
     17          6           0        3.616189    0.268095    2.508619
     18          1           0        3.596506   -0.568718    3.221892
     19          1           0        3.601863    1.204714    3.085229
     20          1           0        4.573032    0.226366    1.967834
     21          6           0       -3.805153    2.191046    0.978424
     22          1           0       -4.604157    1.959906    1.681999
     23          6           0       -3.799942   -0.146391    2.562120
     24          1           0       -3.821764    0.716317    3.243346
     25          1           0       -3.728016   -1.057978    3.174185
     26          1           0       -4.762092   -0.172687    2.030018
     27          6           0        3.569167    2.325170    0.601049
     28          1           0        4.296557    2.286329    1.410654
     29          6           0        1.106981    0.315067    3.726353
     30          1           0        2.040851    0.456040    4.267238
     31          6           0       -1.282694    0.036914    3.750500
     32          1           0       -2.210293   -0.057499    4.311732
     33          6           0        1.086139    0.221667    2.325041
     34          6           0        1.395650   -2.699856   -0.644639
     35          1           0        0.549292   -2.894095   -1.303547
     36          6           0        2.423920    0.196660    1.522879
     37          6           0       -1.278301    0.005212    2.345341
     38          6           0       -3.853339    3.402714    0.272707
     39          1           0       -4.680199    4.100242    0.437436
     40          6           0        3.492799   -2.099584    0.996289
     41          1           0        4.331233   -1.855358    1.647242
     42          6           0        1.756096    2.426804   -1.445319
     43          1           0        1.008117    2.391571   -2.241532
     44          6           0       -0.084964    0.210197    4.445774
     45          6           0        3.690825    3.339689   -0.359734
     46          1           0        4.498802    4.073484   -0.282528
     47          6           0        2.771629    3.381540   -1.414352
     48          1           0        2.830292    4.135644   -2.203740
     49          6           0        2.362523   -3.678281   -0.426623
     50          1           0        2.265153   -4.652226   -0.913065
     51          6           0       -1.818444    2.751719   -0.821066
     52          1           0       -1.035963    2.897334   -1.565424
     53          6           0       -2.833719    3.693628   -0.639531
     54          1           0       -2.821615    4.621952   -1.216421
     55          6           0        3.453577   -3.362444    0.392198
     56          1           0        4.258380   -4.082672    0.567082
     57          6           0       -3.868706   -3.208302   -0.298982
     58          1           0       -4.642317   -3.973894   -0.187917
     59          6           0       -2.060735   -2.184253   -1.493822
     60          1           0       -1.398272   -2.104539   -2.357604
     61          1           0       -0.251990    0.505032   -3.186654
     62          1           0        0.191351   -0.987251   -1.841985
     63          1           0       -0.080049    0.262084    5.538746
     64          8           0        2.583381   -2.100985   -4.222854
     65          6           0        1.763291   -1.290997   -4.468954
     66          8           0        0.931226   -0.478808   -4.697687
 ---------------------------------------------------------------------

 Alpha  occ. eigenvalues --  -19.05664 -19.05446 -18.97976 -14.29510 -14.29442
 Alpha  occ. eigenvalues --  -14.28649 -14.28398 -14.27880 -10.27285 -10.20465
 Alpha  occ. eigenvalues --  -10.20413 -10.19818 -10.19506 -10.19436 -10.19077
 Alpha  occ. eigenvalues --  -10.18928 -10.18716 -10.17877 -10.17460 -10.16742
 Alpha  occ. eigenvalues --  -10.16620 -10.15675 -10.15115 -10.15073 -10.15062
 Alpha  occ. eigenvalues --  -10.14720 -10.14713 -10.14627 -10.14396 -10.14316
 Alpha  occ. eigenvalues --  -10.14303 -10.14236 -10.14012 -10.13965 -10.13682
 Alpha  occ. eigenvalues --  -10.13355 -10.12715 -10.12506  -2.69002  -1.72889
 Alpha  occ. eigenvalues --   -1.72821  -1.72183  -1.23969  -1.20202  -1.12024
 Alpha  occ. eigenvalues --   -1.10591  -1.09990  -1.09596  -1.09263  -1.06364
 Alpha  occ. eigenvalues --   -0.99679  -0.97733  -0.96310  -0.95491  -0.95140
 Alpha  occ. eigenvalues --   -0.94922  -0.94553  -0.92211  -0.91767  -0.91345
 Alpha  occ. eigenvalues --   -0.89021  -0.87527  -0.84296  -0.83039  -0.79985
 Alpha  occ. eigenvalues --   -0.79581  -0.79487  -0.79222  -0.78988  -0.78827
 Alpha  occ. eigenvalues --   -0.78672  -0.78287  -0.75725  -0.73803  -0.70468
 Alpha  occ. eigenvalues --   -0.70043  -0.69690  -0.69372  -0.68465  -0.68226
 Alpha  occ. eigenvalues --   -0.66783  -0.66136  -0.65832  -0.65788  -0.65572
 Alpha  occ. eigenvalues --   -0.64206  -0.64064  -0.63777  -0.63421  -0.63208
 Alpha  occ. eigenvalues --   -0.63068  -0.62974  -0.62757  -0.62362  -0.61643
 Alpha  occ. eigenvalues --   -0.61470  -0.60997  -0.60361  -0.60034  -0.59767
 Alpha  occ. eigenvalues --   -0.59519  -0.58816  -0.58244  -0.57991  -0.57907
 Alpha  occ. eigenvalues --   -0.57497  -0.57449  -0.57105  -0.56996  -0.56058
 Alpha  occ. eigenvalues --   -0.55055  -0.54802  -0.54597  -0.54434  -0.54315
 Alpha  occ. eigenvalues --   -0.53972  -0.53665  -0.53393  -0.52821  -0.52144
 Alpha  occ. eigenvalues --   -0.51451  -0.50459  -0.50277  -0.50181  -0.49472
 Alpha  occ. eigenvalues --   -0.49371  -0.49213  -0.48912  -0.48246  -0.48077
 Alpha  occ. eigenvalues --   -0.47594  -0.46787  -0.46518  -0.46047  -0.45709
 Alpha  occ. eigenvalues --   -0.45326  -0.45135  -0.44538  -0.38932  -0.36715
 Alpha virt. eigenvalues --   -0.31287  -0.29714  -0.29486  -0.28915  -0.28525
 Alpha virt. eigenvalues --   -0.28051  -0.27779  -0.27310  -0.26267  -0.25768
 Alpha virt. eigenvalues --   -0.24862  -0.24079  -0.22366  -0.19711  -0.19347

  Beta  occ. eigenvalues --  -19.05665 -19.05445 -18.97663 -14.29580 -14.29485
  Beta  occ. eigenvalues --  -14.28723 -14.28463 -14.27899 -10.27285 -10.20439
  Beta  occ. eigenvalues --  -10.20388 -10.19779 -10.19446 -10.19382 -10.19065
  Beta  occ. eigenvalues --  -10.18934 -10.18721 -10.17839 -10.17397 -10.16677
  Beta  occ. eigenvalues --  -10.16601 -10.15660 -10.15120 -10.15079 -10.15025
  Beta  occ. eigenvalues --  -10.14724 -10.14659 -10.14573 -10.14417 -10.14332
  Beta  occ. eigenvalues --  -10.14293 -10.14249 -10.14015 -10.13986 -10.13703
  Beta  occ. eigenvalues --  -10.13357 -10.12715 -10.12506  -2.65275  -1.69240
  Beta  occ. eigenvalues --   -1.68719  -1.67749  -1.23970  -1.20203  -1.12007
  Beta  occ. eigenvalues --   -1.10590  -1.09985  -1.09584  -1.09252  -1.05708
  Beta  occ. eigenvalues --   -0.99649  -0.97705  -0.96294  -0.95471  -0.95098
  Beta  occ. eigenvalues --   -0.94885  -0.94542  -0.92170  -0.91713  -0.91305
  Beta  occ. eigenvalues --   -0.88988  -0.87500  -0.84283  -0.83028  -0.79949
  Beta  occ. eigenvalues --   -0.79558  -0.79474  -0.79175  -0.78947  -0.78780
  Beta  occ. eigenvalues --   -0.78614  -0.78258  -0.75664  -0.73772  -0.70423
  Beta  occ. eigenvalues --   -0.70006  -0.69639  -0.69322  -0.68399  -0.68216
  Beta  occ. eigenvalues --   -0.66764  -0.66113  -0.65800  -0.65761  -0.65545
  Beta  occ. eigenvalues --   -0.64139  -0.64015  -0.63750  -0.63399  -0.63190
  Beta  occ. eigenvalues --   -0.63067  -0.62950  -0.62707  -0.62266  -0.61612
  Beta  occ. eigenvalues --   -0.61340  -0.60890  -0.60222  -0.59785  -0.59703
  Beta  occ. eigenvalues --   -0.59377  -0.58638  -0.58134  -0.57929  -0.57841
  Beta  occ. eigenvalues --   -0.57478  -0.57393  -0.57060  -0.56918  -0.55981
  Beta  occ. eigenvalues --   -0.55036  -0.54784  -0.54537  -0.54360  -0.54301
  Beta  occ. eigenvalues --   -0.53943  -0.53640  -0.53357  -0.52636  -0.51817
  Beta  occ. eigenvalues --   -0.51122  -0.50304  -0.50229  -0.50158  -0.49351
  Beta  occ. eigenvalues --   -0.49093  -0.48870  -0.48780  -0.48070  -0.47959
  Beta  occ. eigenvalues --   -0.47540  -0.46608  -0.45937  -0.45712  -0.45227
  Beta  occ. eigenvalues --   -0.45041  -0.44577  -0.44021
  Beta virt. eigenvalues --   -0.34049  -0.32291  -0.31037  -0.29155  -0.28848
  Beta virt. eigenvalues --   -0.28357  -0.28036  -0.27828  -0.27564  -0.27125
  Beta virt. eigenvalues --   -0.26006  -0.24973  -0.24046  -0.22964  -0.20678

 Mulliken charges and spin densities:
               1          2
     1  Mo   1.556904   2.138668
     2  O   -0.900590   0.097609
     3  N    0.306526  -0.112279
     4  N    0.225096  -0.099945
     5  N    0.110324  -0.126287
     6  N    0.304547  -0.072172
     7  C   -0.040853   0.046337
     8  N    0.064611  -0.098202
     9  C   -1.112011   0.014930
    10  C   -0.230598   0.006562
    11  C   -0.059953   0.033216
    12  C   -0.373989  -0.031573
    13  H    0.191179   0.000875
    14  C   -0.103543  -0.014471
    15  H    0.165987   0.000642
    16  C    0.077595   0.032897
    17  C   -0.036290   0.006086
    18  H    0.203538  -0.000051
    19  H    0.197194  -0.000021
    20  H    0.203356  -0.000011
    21  C    0.152089  -0.003530
    22  H    0.165132  -0.000146
    23  C   -0.050674   0.012492
    24  H    0.198591  -0.000019
    25  H    0.198046  -0.000017
    26  H    0.206887   0.000002
    27  C   -0.219532  -0.013041
    28  H    0.165266   0.000372
    29  C    0.212404  -0.003784
    30  H    0.170217   0.000449
    31  C    0.210441  -0.002290
    32  H    0.171075   0.000310
    33  C    0.343103  -0.007388
    34  C    0.198227   0.028825
    35  H    0.153567  -0.001874
    36  C   -1.199988  -0.016735
    37  C    0.548374  -0.013873
    38  C   -0.502588   0.008868
    39  H    0.194173  -0.000420
    40  C    0.081378  -0.008646
    41  H    0.168062   0.000210
    42  C    0.350988   0.067041
    43  H    0.201353  -0.001099
    44  C   -0.768844   0.013241
    45  C   -0.628771   0.048726
    46  H    0.194993  -0.002142
    47  C   -0.290350  -0.005076
    48  H    0.191443   0.001508
    49  C   -0.386869  -0.026600
    50  H    0.190586   0.000286
    51  C    0.182615   0.018897
    52  H    0.178347  -0.000720
    53  C   -0.476769   0.013622
    54  H    0.189845   0.000561
    55  C   -0.529673   0.037876
    56  H    0.197063  -0.001476
    57  C   -0.423226   0.059837
    58  H    0.195364  -0.002536
    59  C    0.353294   0.050013
    60  H    0.166331  -0.002605
    61  H    0.434198   0.003912
    62  H   -0.129332  -0.077664
    63  H    0.196079  -0.000379
    64  O   -0.209010   0.000025
    65  C    0.542965   0.002427
    66  O   -0.235899  -0.000253
 Sum of Mulliken charges =   2.00000   2.00000

 Dipole moment (field-independent basis, Debye):
    X=             -0.3515    Y=             -0.3442    Z=              6.2855  Tot=              6.3047
 Quadrupole moment (field-independent basis, Debye-Ang):
   XX=           -121.6961   YY=           -151.2364   ZZ=           -171.7746
   XY=              5.4052   XZ=             -3.3712   YZ=              3.6305

  Exact polarizability:   0.000   0.000   0.000   0.000   0.000   0.000
 Approx polarizability: 932.447  33.275 868.240  14.906 -20.174 849.370

 Normal termination of Gaussian 16 at Thu Jul 16 15:25:19 2020.
