 Gaussian 16, Revision B.01,
 Gaussian 16:  ES64L-G16RevB.01 20-Dec-2017

 ----------------------------------------------------------------------
 # M062X/ChkBasis NoSymm SCF=(NoVarAcc,XQC) Int=(Grid=Ultrafine,acc2e=1
 1) Geom=AllCheck Guess=Read IRC=(Reverse,CalcAll,Phase=(1,6),MaxPoints
 =300,StepSize=5)
 ----------------------------------------------------------------------

 ----------------------------------------------------------------------
 Geometrical optimization for a DA reaction C2H2(NH2)2 + C4H4(NH2)2 -->
  C6H6(NH2)4
 ----------------------------------------------------------------------
 Charge =  0 Multiplicity = 1

 SCF Done:  E(RM062X) =  -455.770424251     A.U. after    5 cycles
 SCF Done:  E(RM062X) =  -455.770556757     A.U. after   12 cycles
 SCF Done:  E(RM062X) =  -455.770970709     A.U. after   12 cycles
 SCF Done:  E(RM062X) =  -455.771683349     A.U. after   12 cycles
 SCF Done:  E(RM062X) =  -455.772706206     A.U. after   12 cycles
 SCF Done:  E(RM062X) =  -455.774042818     A.U. after   12 cycles
 SCF Done:  E(RM062X) =  -455.775687930     A.U. after   12 cycles
 SCF Done:  E(RM062X) =  -455.777627960     A.U. after   12 cycles
 SCF Done:  E(RM062X) =  -455.779842456     A.U. after   12 cycles
 SCF Done:  E(RM062X) =  -455.782306014     A.U. after   12 cycles
 SCF Done:  E(RM062X) =  -455.864807056     A.U. after    9 cycles
 SCF Done:  E(RM062X) =  -455.864844185     A.U. after    9 cycles
 SCF Done:  E(RM062X) =  -455.864881937     A.U. after    9 cycles
 SCF Done:  E(RM062X) =  -455.864920328     A.U. after   10 cycles
 SCF Done:  E(RM062X) =  -455.864959346     A.U. after   10 cycles
 SCF Done:  E(RM062X) =  -455.864998922     A.U. after   10 cycles
 SCF Done:  E(RM062X) =  -455.865038923     A.U. after   10 cycles
 SCF Done:  E(RM062X) =  -455.865079189     A.U. after   10 cycles
 SCF Done:  E(RM062X) =  -455.865119592     A.U. after   10 cycles
 SCF Done:  E(RM062X) =  -455.865160057     A.U. after   10 cycles

                          Input orientation:
 ---------------------------------------------------------------------
 Center     Atomic      Atomic             Coordinates (Angstroms)
 Number     Number       Type             X           Y           Z
 ---------------------------------------------------------------------
      1          6           0        0.011467    1.398189   -0.339489
      2          6           0       -1.275757    0.618988   -0.345673
      3          6           0       -1.193081   -0.719510   -0.416305
      4          6           0        0.189938   -1.325430   -0.449154
      5          6           0        1.072887   -0.730805    0.671319
      6          6           0        1.040409    0.834426    0.661075
      7          1           0       -0.173950    2.451267   -0.115989
      8          1           0        0.127522   -2.407428   -0.315505
      9          1           0        0.633068   -1.050553    1.616824
     10          1           0        0.739804    1.159981    1.663910
     11          1           0        0.696007   -1.149640   -1.408489
     12          1           0        0.470328    1.354743   -1.331842
     13          7           0        2.360186    1.364576    0.293968
     14          1           0        2.374594    2.369741    0.169921
     15          1           0        3.096788    1.038044    0.907697
     16          7           0        2.458444   -1.209952    0.664578
     17          1           0        2.954834   -0.963748   -0.184155
     18          1           0        2.550306   -2.191271    0.892788
     19          7           0       -2.470575    1.313103   -0.336149
     20          1           0       -2.501662    2.299368   -0.161820
     21          1           0       -3.320595    0.774387   -0.326967
     22          7           0       -2.396615   -1.504117   -0.461320
     23          1           0       -2.609770   -1.933115   -1.353515
     24          1           0       -2.527292   -2.149404    0.307484
 ---------------------------------------------------------------------

 Alpha  occ. eigenvalues --  -14.73776 -14.72601 -14.72003 -14.71958 -10.56886
 Alpha  occ. eigenvalues --  -10.56725 -10.56451 -10.53841 -10.53585 -10.52383
 Alpha  occ. eigenvalues --   -1.02283  -1.00403  -0.97088  -0.96063  -0.88144
 Alpha  occ. eigenvalues --   -0.80909  -0.78089  -0.71317  -0.65502  -0.60130
 Alpha  occ. eigenvalues --   -0.59069  -0.58789  -0.56269  -0.55628  -0.54269
 Alpha  occ. eigenvalues --   -0.52354  -0.49320  -0.47750  -0.46962  -0.45161
 Alpha  occ. eigenvalues --   -0.44665  -0.41204  -0.40415  -0.37708  -0.37372
 Alpha  occ. eigenvalues --   -0.31020  -0.29010  -0.27486  -0.22930
 Alpha virt. eigenvalues --    0.05831   0.07048   0.07895   0.08982   0.09955
 Alpha virt. eigenvalues --    0.10151   0.11745   0.13279   0.13513   0.14565
 Alpha virt. eigenvalues --    0.15399   0.16057   0.17956   0.18163   0.19188

 Mulliken charges:
               1
     1  C   -0.586154
     2  C    0.236712
     3  C   -0.145379
     4  C   -0.311484
     5  C   -0.289152
     6  C   -0.110481
     7  H    0.168621
     8  H    0.153935
     9  H    0.202467
    10  H    0.199712
    11  H    0.154613
    12  H    0.226547
    13  N   -0.634666
    14  H    0.290175
    15  H    0.323210
    16  N   -0.605036
    17  H    0.314072
    18  H    0.288296
    19  N   -0.576646
    20  H    0.319185
    21  H    0.344107
    22  N   -0.575319
    23  H    0.309356
    24  H    0.303312
 Sum of Mulliken charges =  -0.00000

 Dipole moment (field-independent basis, Debye):
    X=             -0.6445    Y=             -0.0023    Z=              0.3402  Tot=              0.7288
 Quadrupole moment (field-independent basis, Debye-Ang):
   XX=            -63.5028   YY=            -50.5283   ZZ=            -64.9409
   XY=             -0.1320   XZ=             -0.6965   YZ=              1.6441

  Exact polarizability:   0.000   0.000   0.000   0.000   0.000   0.000
 Approx polarizability: 109.734  -4.486 125.818  -0.886   0.049  93.617

 Normal termination of Gaussian 16 at Wed Apr 15 15:59:48 2020.
