 Gaussian 16, Revision B.01,
 Gaussian 16:  ES64L-G16RevB.01 20-Dec-2017

 ----------------------------------------------------------------------
 # UBP86/GenECP Int=(Grid=Ultrafine,acc2e=12) SCF=(NoVarAcc,Tight,XQC,M
 axCyc=200) NoSymm # IRC=(Forward,CalcAll,Recorrect=Never,Phase=(1,62),
 MaxPoints=1000,StepSize=10,maxcycle=1000,Report=cartesian)
 ----------------------------------------------------------------------

 IRC forward from the transition state of the MHR [PY5Me2Mo(III)(H)(H)]
 ^+ + CO2 --> HCOOH +[PY5Me2Mo(III)O]^+ 2S+1=2 in gas phase
 ----------------------------------------------------------------------
 Symbolic Z-matrix:
 Charge =  1 Multiplicity = 2

 SCF Done:  E(UB-P86) =  -1727.15228214     A.U. after   31 cycles
 SCF Done:  E(UB-P86) =  -1727.15239156     A.U. after   19 cycles
 SCF Done:  E(UB-P86) =  -1727.15290502     A.U. after   20 cycles
 SCF Done:  E(UB-P86) =  -1727.15367602     A.U. after   19 cycles
 SCF Done:  E(UB-P86) =  -1727.15440157     A.U. after   19 cycles
 SCF Done:  E(UB-P86) =  -1727.15498771     A.U. after   18 cycles
 SCF Done:  E(UB-P86) =  -1727.15548972     A.U. after   18 cycles
 SCF Done:  E(UB-P86) =  -1727.15595677     A.U. after   18 cycles
 SCF Done:  E(UB-P86) =  -1727.15640912     A.U. after   18 cycles
 SCF Done:  E(UB-P86) =  -1727.15685267     A.U. after   18 cycles
 SCF Done:  E(UB-P86) =  -1727.18520832     A.U. after   14 cycles
 SCF Done:  E(UB-P86) =  -1727.18523450     A.U. after   14 cycles
 SCF Done:  E(UB-P86) =  -1727.18526069     A.U. after   14 cycles
 SCF Done:  E(UB-P86) =  -1727.18528672     A.U. after   14 cycles
 SCF Done:  E(UB-P86) =  -1727.18531240     A.U. after   14 cycles
 SCF Done:  E(UB-P86) =  -1727.18533806     A.U. after   14 cycles
 SCF Done:  E(UB-P86) =  -1727.18536340     A.U. after   14 cycles
 SCF Done:  E(UB-P86) =  -1727.18538847     A.U. after   14 cycles
 SCF Done:  E(UB-P86) =  -1727.18541356     A.U. after   14 cycles
 SCF Done:  E(UB-P86) =  -1727.18543851     A.U. after   14 cycles

                          Input orientation:
 ---------------------------------------------------------------------
 Center     Atomic      Atomic             Coordinates (Angstroms)
 Number     Number       Type             X           Y           Z
 ---------------------------------------------------------------------
      1         42           0       -0.127607    0.185281   -0.522632
      2          8           0       -0.060438    0.297734   -2.288673
      3          7           0       -1.764179   -1.212258   -0.416179
      4          7           0        1.443235   -1.295214   -0.238882
      5          7           0        1.533357    1.552851   -0.286856
      6          7           0       -1.724570    1.597473   -0.202823
      7          6           0       -2.676559   -1.153328    0.610780
      8          7           0       -0.130115    0.116302    1.723225
      9          6           0       -2.631071    0.074839    1.573037
     10          6           0       -2.710356    1.378696    0.728717
     11          6           0        2.413092   -1.143540    0.721159
     12          6           0       -2.882549   -3.177087   -1.306617
     13          1           0       -2.945739   -3.921826   -2.104552
     14          6           0       -3.648325   -2.162734    0.742647
     15          1           0       -4.348870   -2.149738    1.577262
     16          6           0        2.461457    1.400423    0.712959
     17          6           0        3.577037    0.113216    2.579611
     18          1           0        3.552086   -0.775709    3.227218
     19          1           0        3.576664    0.999497    3.231253
     20          1           0        4.525874    0.103015    2.022462
     21          6           0       -3.754095    2.310196    0.880023
     22          1           0       -4.525986    2.154105    1.633224
     23          6           0       -3.850547    0.012741    2.521982
     24          1           0       -3.878266    0.886435    3.189835
     25          1           0       -3.815170   -0.887397    3.153457
     26          1           0       -4.790835   -0.008706    1.950915
     27          6           0        3.481135    2.357288    0.876087
     28          1           0        4.203366    2.262438    1.686433
     29          6           0        1.056436    0.145278    3.831011
     30          1           0        1.993898    0.165270    4.385446
     31          6           0       -1.351378    0.098773    3.810925
     32          1           0       -2.297389    0.077422    4.350538
     33          6           0        1.050789    0.135288    2.430594
     34          6           0        1.510162   -2.372940   -1.077999
     35          1           0        0.755921   -2.420257   -1.863602
     36          6           0        2.370146    0.131534    1.613074
     37          6           0       -1.323552    0.090911    2.410434
     38          6           0       -3.835625    3.439613    0.053892
     39          1           0       -4.654823    4.154013    0.175223
     40          6           0        3.411238   -2.123791    0.871690
     41          1           0        4.172243   -2.022249    1.644815
     42          6           0        1.691319    2.578136   -1.179952
     43          1           0        0.978607    2.585589   -2.007712
     44          6           0       -0.153578    0.129351    4.536615
     45          6           0        3.605912    3.434768   -0.012741
     46          1           0        4.405448    4.169073    0.120463
     47          6           0        2.704505    3.527504   -1.083841
     48          1           0        2.778287    4.319321   -1.834254
     49          6           0        2.499483   -3.349865   -0.992781
     50          1           0        2.503726   -4.172685   -1.712222
     51          6           0       -1.825878    2.687469   -1.025239
     52          1           0       -1.046620    2.779057   -1.782920
     53          6           0       -2.857198    3.617318   -0.936107
     54          1           0       -2.882436    4.463030   -1.628413
     55          6           0        3.462765   -3.235400    0.018254
     56          1           0        4.251265   -3.984281    0.136790
     57          6           0       -3.752314   -3.190700   -0.205897
     58          1           0       -4.513294   -3.968308   -0.094371
     59          6           0       -1.908407   -2.184860   -1.370570
     60          1           0       -1.217556   -2.127149   -2.215062
     61          1           0        0.306355   -0.700784   -3.593665
     62          1           0        2.166431   -0.329373   -4.638509
     63          1           0       -0.162903    0.136356    5.630068
     64          8           0        2.429687   -2.307588   -5.129422
     65          6           0        1.801010   -1.383625   -4.650222
     66          8           0        0.580648   -1.541045   -4.077119
 ---------------------------------------------------------------------

 Alpha  occ. eigenvalues --  -18.90545 -18.89487 -18.85701 -14.18323 -14.18034
 Alpha  occ. eigenvalues --  -14.17839 -14.17750 -14.17001 -10.10489 -10.08959
 Alpha  occ. eigenvalues --  -10.08834 -10.08780 -10.08772 -10.08757 -10.08642
 Alpha  occ. eigenvalues --  -10.08252 -10.08202 -10.07237 -10.06872 -10.06623
 Alpha  occ. eigenvalues --  -10.06571 -10.04634 -10.04525 -10.04416 -10.04406
 Alpha  occ. eigenvalues --  -10.04391 -10.04314 -10.04273 -10.04209 -10.04191
 Alpha  occ. eigenvalues --  -10.04186 -10.04161 -10.04126 -10.04007 -10.03667
 Alpha  occ. eigenvalues --  -10.03640 -10.03013 -10.02982  -2.56658  -1.62598
 Alpha  occ. eigenvalues --   -1.59947  -1.58785  -1.07161  -1.00832  -0.99929
 Alpha  occ. eigenvalues --   -0.99861  -0.98867  -0.98825  -0.98683  -0.91803
 Alpha  occ. eigenvalues --   -0.89076  -0.87247  -0.85331  -0.85051  -0.84866
 Alpha  occ. eigenvalues --   -0.84718  -0.84582  -0.81470  -0.81373  -0.81166
 Alpha  occ. eigenvalues --   -0.78907  -0.77351  -0.73866  -0.72900  -0.69334
 Alpha  occ. eigenvalues --   -0.69234  -0.68994  -0.68844  -0.68809  -0.68680
 Alpha  occ. eigenvalues --   -0.68541  -0.68327  -0.65328  -0.63451  -0.63256
 Alpha  occ. eigenvalues --   -0.59942  -0.59673  -0.59557  -0.58858  -0.58280
 Alpha  occ. eigenvalues --   -0.57802  -0.56116  -0.55818  -0.55634  -0.55495
 Alpha  occ. eigenvalues --   -0.55377  -0.54018  -0.53775  -0.53113  -0.52893
 Alpha  occ. eigenvalues --   -0.52508  -0.52169  -0.51401  -0.51092  -0.50316
 Alpha  occ. eigenvalues --   -0.50093  -0.49447  -0.49369  -0.49079  -0.47922
 Alpha  occ. eigenvalues --   -0.47577  -0.47520  -0.47397  -0.47265  -0.47094
 Alpha  occ. eigenvalues --   -0.46949  -0.46426  -0.46042  -0.45702  -0.45104
 Alpha  occ. eigenvalues --   -0.44947  -0.44532  -0.44490  -0.43819  -0.43720
 Alpha  occ. eigenvalues --   -0.43668  -0.43394  -0.43273  -0.42277  -0.41508
 Alpha  occ. eigenvalues --   -0.41417  -0.40547  -0.40207  -0.39259  -0.39007
 Alpha  occ. eigenvalues --   -0.38273  -0.38039  -0.37778  -0.37619  -0.37274
 Alpha  occ. eigenvalues --   -0.37123  -0.36035  -0.35602  -0.35351  -0.35221
 Alpha  occ. eigenvalues --   -0.34643  -0.34513  -0.30132  -0.25962  -0.22933
 Alpha virt. eigenvalues --   -0.22028  -0.18843  -0.18627  -0.18553  -0.18195
 Alpha virt. eigenvalues --   -0.17747  -0.17701  -0.17563  -0.16860  -0.15982
 Alpha virt. eigenvalues --   -0.14403  -0.11171  -0.10675  -0.10444  -0.09790

  Beta  occ. eigenvalues --  -18.90536 -18.89220 -18.85699 -14.18311 -14.18023
  Beta  occ. eigenvalues --  -14.17822 -14.17741 -14.16977 -10.10489 -10.08938
  Beta  occ. eigenvalues --  -10.08804 -10.08757 -10.08659 -10.08644 -10.08610
  Beta  occ. eigenvalues --  -10.08260 -10.08210 -10.07222 -10.06841 -10.06601
  Beta  occ. eigenvalues --  -10.06531 -10.04617 -10.04528 -10.04388 -10.04379
  Beta  occ. eigenvalues --  -10.04318 -10.04279 -10.04249 -10.04231 -10.04213
  Beta  occ. eigenvalues --  -10.04204 -10.04151 -10.04105 -10.04016 -10.03679
  Beta  occ. eigenvalues --  -10.03646 -10.03012 -10.02981  -2.55659  -1.61254
  Beta  occ. eigenvalues --   -1.59467  -1.57385  -1.07148  -1.00763  -0.99916
  Beta  occ. eigenvalues --   -0.99827  -0.98822  -0.98771  -0.98616  -0.91213
  Beta  occ. eigenvalues --   -0.88999  -0.87206  -0.85258  -0.85005  -0.84786
  Beta  occ. eigenvalues --   -0.84686  -0.84539  -0.81415  -0.81311  -0.81115
  Beta  occ. eigenvalues --   -0.78869  -0.77314  -0.73862  -0.72884  -0.69263
  Beta  occ. eigenvalues --   -0.69110  -0.68933  -0.68800  -0.68771  -0.68614
  Beta  occ. eigenvalues --   -0.68515  -0.68274  -0.65252  -0.63425  -0.63216
  Beta  occ. eigenvalues --   -0.59874  -0.59625  -0.59512  -0.58818  -0.58249
  Beta  occ. eigenvalues --   -0.57783  -0.56075  -0.55784  -0.55607  -0.55458
  Beta  occ. eigenvalues --   -0.55350  -0.53974  -0.53737  -0.53075  -0.52850
  Beta  occ. eigenvalues --   -0.52407  -0.52127  -0.51379  -0.51069  -0.50238
  Beta  occ. eigenvalues --   -0.49939  -0.49331  -0.49248  -0.49013  -0.47853
  Beta  occ. eigenvalues --   -0.47545  -0.47443  -0.47352  -0.47192  -0.46935
  Beta  occ. eigenvalues --   -0.46900  -0.46362  -0.46035  -0.45685  -0.45083
  Beta  occ. eigenvalues --   -0.44913  -0.44518  -0.44423  -0.43758  -0.43672
  Beta  occ. eigenvalues --   -0.43597  -0.43293  -0.43208  -0.42203  -0.41325
  Beta  occ. eigenvalues --   -0.41069  -0.40169  -0.39857  -0.39154  -0.38936
  Beta  occ. eigenvalues --   -0.37912  -0.37677  -0.37527  -0.37453  -0.37115
  Beta  occ. eigenvalues --   -0.36968  -0.35840  -0.35519  -0.35285  -0.35132
  Beta  occ. eigenvalues --   -0.34602  -0.34399  -0.30119  -0.25383
  Beta virt. eigenvalues --   -0.21688  -0.21424  -0.18620  -0.18394  -0.17998
  Beta virt. eigenvalues --   -0.17914  -0.17677  -0.17413  -0.16831  -0.16604
  Beta virt. eigenvalues --   -0.15772  -0.14246  -0.11162  -0.10639  -0.09960

 Mulliken charges and spin densities:
               1          2
     1  Mo   0.326353   0.524697
     2  O   -0.563732   0.116894
     3  N    0.445270   0.001442
     4  N    0.565470  -0.012672
     5  N    0.406303  -0.002752
     6  N    0.494152  -0.004102
     7  C   -0.014250  -0.000347
     8  N    0.144454   0.004782
     9  C   -0.824358  -0.010529
    10  C   -0.183392   0.010310
    11  C    0.193332   0.019928
    12  C   -0.414035  -0.005125
    13  H    0.172956   0.001003
    14  C   -0.101736  -0.015673
    15  H    0.145415   0.000190
    16  C   -0.138553  -0.000949
    17  C   -0.126343  -0.005250
    18  H    0.189097   0.000021
    19  H    0.185004   0.000060
    20  H    0.199306  -0.000169
    21  C   -0.039349  -0.007531
    22  H    0.148563   0.000049
    23  C   -0.153106  -0.006638
    24  H    0.185594   0.000084
    25  H    0.187524   0.000033
    26  H    0.199507  -0.000165
    27  C   -0.085617  -0.010682
    28  H    0.146487   0.000052
    29  C    0.089225  -0.046435
    30  H    0.147569   0.001200
    31  C    0.206067  -0.048376
    32  H    0.147245   0.001220
    33  C    0.196072   0.086327
    34  C    0.425401   0.014388
    35  H    0.172518  -0.001258
    36  C   -0.863421  -0.014715
    37  C    0.171282   0.085618
    38  C   -0.547691   0.014123
    39  H    0.170008  -0.000585
    40  C    0.117894  -0.006425
    41  H    0.147521   0.000193
    42  C    0.092741   0.034146
    43  H    0.153994  -0.000495
    44  C   -0.844094   0.155121
    45  C   -0.555828   0.025068
    46  H    0.169004  -0.001195
    47  C   -0.080583  -0.001455
    48  H    0.167292   0.001049
    49  C   -0.748575  -0.006528
    50  H    0.178748   0.000368
    51  C    0.105709   0.016408
    52  H    0.148578  -0.000559
    53  C   -0.311574  -0.003261
    54  H    0.168810   0.000408
    55  C   -0.563550   0.026420
    56  H    0.171361  -0.001038
    57  C   -0.490184   0.039462
    58  H    0.168666  -0.001703
    59  C    0.399797   0.039755
    60  H    0.170475  -0.001439
    61  H    0.404808   0.000767
    62  H    0.112873   0.000049
    63  H    0.165647  -0.007410
    64  O   -0.361633   0.000369
    65  C    0.259305   0.001400
    66  O   -0.351791   0.002062
 Sum of Mulliken charges =   1.00000   1.00000

 Dipole moment (field-independent basis, Debye):
    X=             -2.1226    Y=              3.7081    Z=              8.9391  Tot=              9.9077
 Quadrupole moment (field-independent basis, Debye-Ang):
   XX=           -167.7554   YY=           -192.9008   ZZ=           -227.1984
   XY=              6.5692   XZ=              9.5106   YZ=            -17.1497

  Exact polarizability:   0.000   0.000   0.000   0.000   0.000   0.000
 Approx polarizability:1467.796  29.4071114.828 -16.602   7.8391328.324

 Normal termination of Gaussian 16 at Thu Jul  9 10:30:48 2020.
