 Gaussian 09, Revision E.01,
 Gaussian 09:  ES64L-G09RevE.01 30-Nov-2015

 ----------------------------------------------------------------------
 # M062X/ChkBasis NoSymm SCF=(NoVarAcc,XQC) Int=(Grid=Ultrafine,acc2e=1
 1) Geom=AllCheck Guess=Read IRC=(CalcAll,Phase=(5,6),MaxPoints=100,Ste
 pSize=15)
 ----------------------------------------------------------------------

 Structure from the checkpoint file:  "dairc1.chk"
 --------------------------------------------------------------
 Geometrical optimization for a DA reaction C2H4+C4H6 --> C6H10
 --------------------------------------------------------------
 Charge =  0 Multiplicity = 1

 SCF Done:  E(RM062X) =  -234.433257572     A.U. after    5 cycles
 SCF Done:  E(RM062X) =  -234.434437333     A.U. after   11 cycles
 SCF Done:  E(RM062X) =  -234.434443788     A.U. after    9 cycles
 SCF Done:  E(RM062X) =  -234.438488329     A.U. after   11 cycles
 SCF Done:  E(RM062X) =  -234.445883223     A.U. after   11 cycles
 SCF Done:  E(RM062X) =  -234.456324817     A.U. after   11 cycles
 SCF Done:  E(RM062X) =  -234.468861760     A.U. after   11 cycles
 SCF Done:  E(RM062X) =  -234.482424493     A.U. after   10 cycles
 SCF Done:  E(RM062X) =  -234.496027330     A.U. after   10 cycles
 SCF Done:  E(RM062X) =  -234.508721686     A.U. after   10 cycles
 SCF Done:  E(RM062X) =  -234.464188502     A.U. after   10 cycles
 SCF Done:  E(RM062X) =  -234.464198986     A.U. after    8 cycles
 SCF Done:  E(RM062X) =  -234.464199022     A.U. after    7 cycles
 SCF Done:  E(RM062X) =  -234.464318934     A.U. after   10 cycles
 SCF Done:  E(RM062X) =  -234.464326812     A.U. after    8 cycles
 SCF Done:  E(RM062X) =  -234.464327080     A.U. after    7 cycles
 SCF Done:  E(RM062X) =  -234.464423413     A.U. after   10 cycles
 SCF Done:  E(RM062X) =  -234.464426495     A.U. after    8 cycles
 SCF Done:  E(RM062X) =  -234.464497609     A.U. after   10 cycles
 SCF Done:  E(RM062X) =  -234.464499660     A.U. after    8 cycles

                          Input orientation:
 ---------------------------------------------------------------------
 Center     Atomic      Atomic             Coordinates (Angstroms)
 Number     Number       Type             X           Y           Z
 ---------------------------------------------------------------------
      1          6           0       -0.375237   -1.557402   -0.965529
      2          6           0        0.861836   -1.341984   -0.519276
      3          6           0        1.642732   -0.114294   -0.746780
      4          6           0        1.123839    1.094348   -0.963936
      5          6           0       -1.206662    1.482438    1.572945
      6          6           0       -1.873035    0.335932    1.529199
      7          1           0       -0.904136   -2.474677   -0.746844
      8          1           0        1.361023   -2.120079    0.048315
      9          1           0        2.720851   -0.229379   -0.717128
     10          1           0        1.753552    1.954725   -1.143171
     11          1           0       -0.159436    1.521005    1.841476
     12          1           0       -2.919444    0.292083    1.255389
     13          1           0       -1.396563   -0.606574    1.760940
     14          1           0       -1.678055    2.427955    1.336664
     15          1           0        0.055088    1.264234   -0.953564
     16          1           0       -0.897275   -0.827751   -1.571286
 ---------------------------------------------------------------------

 Alpha  occ. eigenvalues --  -10.54991 -10.54941 -10.53866 -10.53705 -10.53677
 Alpha  occ. eigenvalues --  -10.53559  -0.91120  -0.86092  -0.82942  -0.70472
 Alpha  occ. eigenvalues --   -0.65964  -0.60922  -0.57057  -0.54227  -0.51072
 Alpha  occ. eigenvalues --   -0.49473  -0.48735  -0.43269  -0.41429  -0.40944
 Alpha  occ. eigenvalues --   -0.38127  -0.32911  -0.29172
 Alpha virt. eigenvalues --    0.00210   0.04327   0.08765   0.10074   0.10685
 Alpha virt. eigenvalues --    0.11424   0.12070   0.13361   0.14131   0.15987
 Alpha virt. eigenvalues --    0.16437   0.18265   0.19904   0.21126   0.23025

 Mulliken charges:
               1
     1  C   -0.380468
     2  C   -0.129966
     3  C   -0.108079
     4  C   -0.401299
     5  C   -0.326392
     6  C   -0.291152
     7  H    0.156732
     8  H    0.171153
     9  H    0.171058
    10  H    0.155742
    11  H    0.165219
    12  H    0.149618
    13  H    0.153794
    14  H    0.150922
    15  H    0.185034
    16  H    0.178084
 Sum of Mulliken charges =  -0.00000

 Dipole moment (field-independent basis, Debye):
    X=              0.0624    Y=             -0.0583    Z=              0.0047  Tot=              0.0855
 Quadrupole moment (field-independent basis, Debye-Ang):
   XX=            -36.3014   YY=            -36.4909   ZZ=            -43.9612
   XY=              0.4442   XZ=              1.9637   YZ=             -2.0417

  Exact polarizability:   0.000   0.000   0.000   0.000   0.000   0.000
 Approx polarizability:  87.272  10.873  99.742   8.148  -4.427  50.942

 Normal termination of Gaussian 09 at Wed Apr 25 17:32:56 2018.
